<?xml version="1.0"?>
<VTKFile type="UnstructuredGrid" version="0.1" byte_order="LittleEndian">
  <UnstructuredGrid>
    <Piece NumberOfPoints="408" NumberOfCells="814">
      <PointData>
        <DataArray type="Float64" Name="t1" NumberOfComponents="1" format="ascii">
 -2.3536231E+014 -2.3536231E+014 -2.3536231E+014 -2.3536231E+014 -2.3536231E+014 -2.3536231E+014 -2.3536231E+014 -2.3536231E+014 -2.3536231E+014 -2.3536231E+014 -2.3536231E+014 -2.3536231E+014 -2.3536231E+014 -2.3536231E+014 -2.3536231E+014 -2.3536231E+014 -2.3536231E+014 -2.3536231E+014 -2.3536231E+014 -2.3536231E+014 -2.3536231E+014 -2.3536231E+014 -2.3536231E+014 -2.3536231E+014 -2.3536231E+014 -2.3536231E+014 -2.3536231E+014 -2.3536231E+014 -2.3536231E+014 -2.3536231E+014 -2.3536231E+014 -2.3536231E+014 -2.3536231E+014 -2.3536231E+014 -2.3536231E+014 -2.3536231E+014 -2.3536231E+014 -2.3536231E+014 -2.3536231E+014 -2.3536231E+014 -2.3536231E+014 -2.3536231E+014 -2.3536231E+014 -2.3536231E+014 -2.3536231E+014 -2.3536231E+014 -2.3536231E+014 -2.3536231E+014 -2.3536231E+014 -2.3536231E+014 -2.3536231E+014 -2.3536231E+014 -2.3536231E+014 -2.3536231E+014 -2.3536231E+014 -2.3536231E+014 -2.3536231E+014 -2.3536231E+014 -2.3536231E+014 -2.3536231E+014 -2.3536231E+014 -2.3536231E+014 -2.3536231E+014 -2.3536231E+014 -2.3536231E+014 -2.3536231E+014 -2.3536231E+014 -2.3536231E+014 -2.3536231E+014 -2.3536231E+014 -2.3536231E+014 -2.3536231E+014 -2.3536231E+014 -2.3536231E+014 -2.3536231E+014 -2.3536231E+014 -2.3536231E+014 -2.3536231E+014 -2.3536231E+014 -2.3536231E+014 -2.3536231E+014 -2.3536231E+014 -2.3536231E+014 -2.3536231E+014 -2.3536231E+014 -2.3536231E+014 -2.3536231E+014 -2.3536231E+014 -2.3536231E+014 -2.3536231E+014 -2.3536231E+014 -2.3536231E+014 -2.3536231E+014 -2.3536231E+014 -2.3536231E+014 -2.3536231E+014 -2.3536231E+014 -2.3536231E+014 -2.3536231E+014 -2.3536231E+014 -2.3536231E+014 -2.3536231E+014 -2.3536231E+014 -2.3536231E+014 -2.3536231E+014 -2.3536231E+014 -2.3536231E+014 -2.3536231E+014 -2.3536231E+014 -2.3536231E+014 -2.3536231E+014 -2.3536231E+014 -2.3536231E+014 -2.3536231E+014 -2.3536231E+014 -2.3536231E+014 -2.3536231E+014 -2.3536231E+014 -2.3536231E+014 -2.3536231E+014 -2.3536231E+014 -2.3536231E+014 -2.3536231E+014 -2.3536231E+014 -2.3536231E+014 -2.3536231E+014 -2.3536231E+014 -2.3536231E+014 -2.3536231E+014 -2.3536231E+014 -2.3536231E+014 -2.3536231E+014 -2.3536231E+014 -2.3536231E+014 -2.3536231E+014 -2.3536231E+014 -2.3536231E+014 -2.3536231E+014 -2.3536231E+014 -2.3536231E+014 -2.3536231E+014 -2.3536231E+014 -2.3536231E+014 -2.3536231E+014 -2.3536231E+014 -2.3536231E+014 -2.3536231E+014 -2.3536231E+014 -2.3536231E+014 -2.3536231E+014 -2.3536231E+014 -2.3536231E+014 -2.3536231E+014 -2.3536231E+014 -2.3536231E+014 -2.3536231E+014 -2.3536231E+014 -2.3536231E+014 -2.3536231E+014 -2.3536231E+014 -2.3536231E+014 -2.3536231E+014 -2.3536231E+014 -2.3536231E+014 -2.3536231E+014 -2.3536231E+014 -2.3536231E+014 -2.3536231E+014 -2.3536231E+014 -2.3536231E+014 -2.3536231E+014 -2.3536231E+014 -2.3536231E+014 -2.3536231E+014 -2.3536231E+014 -2.3536231E+014 -2.3536231E+014 -2.3536231E+014 -2.3536231E+014 -2.3536231E+014 -2.3536231E+014 -2.3536231E+014 -2.3536231E+014 -2.3536231E+014 -2.3536231E+014 -2.3536231E+014 -2.3536231E+014 -2.3536231E+014 -2.3536231E+014 -2.3536231E+014 -2.3536231E+014 -2.3536231E+014 -2.3536231E+014 -2.3536231E+014 -2.3536231E+014 -2.3536231E+014 -2.3536231E+014 -2.3536231E+014 -2.3536231E+014 -2.3536231E+014 -2.3536231E+014 -2.3536231E+014 -2.3536231E+014 -2.3536231E+014 -2.3536231E+014 -2.3536231E+014 -2.3536231E+014 -2.3536231E+014 -2.3536231E+014 -2.3536231E+014 -2.3536231E+014 -2.3536231E+014 -2.3536231E+014 -2.3536231E+014 -2.3536231E+014 -2.3536231E+014 -2.3536231E+014 -2.3536231E+014 -2.3536231E+014 -2.3536231E+014 -2.3536231E+014 -2.3536231E+014 -2.3536231E+014 -2.3536231E+014 -2.3536231E+014 -2.3536231E+014 -2.3536231E+014 -2.3536231E+014 -2.3536231E+014 -2.3536231E+014 -2.3536231E+014 -2.3536231E+014 -2.3536231E+014 -2.3536231E+014 -2.3536231E+014 -2.3536231E+014 -2.3536231E+014 -2.3536231E+014 -2.3536231E+014 -2.3536231E+014 -2.3536231E+014 -2.3536231E+014 -2.3536231E+014 -2.3536231E+014 -2.3536231E+014 -2.3536231E+014 -2.3536231E+014 -2.3536231E+014 -2.3536231E+014 -2.3536231E+014 -2.3536231E+014 -2.3536231E+014 -2.3536231E+014 -2.3536231E+014 -2.3536231E+014 -2.3536231E+014 -2.3536231E+014 -2.3536231E+014 -2.3536231E+014 -2.3536231E+014 -2.3536231E+014 -2.3536231E+014 -2.3536231E+014 -2.3536231E+014 -2.3536231E+014 -2.3536231E+014 -2.3536231E+014 -2.3536231E+014 -2.3536231E+014 -2.3536231E+014 -2.3536231E+014 -2.3536231E+014 -2.3536231E+014 -2.3536231E+014 -2.3536231E+014 -2.3536231E+014 -2.3536231E+014 -2.3536231E+014 -2.3536231E+014 -2.3536231E+014 -2.3536231E+014 -2.3536231E+014 -2.3536231E+014 -2.3536231E+014 -2.3536231E+014 -2.3536231E+014 -2.3536231E+014 -2.3536231E+014 -2.3536231E+014 -2.3536231E+014 -2.3536231E+014 -2.3536231E+014 -2.3536231E+014 -2.3536231E+014 -2.3536231E+014 -2.3536231E+014 -2.3536231E+014 -2.3536231E+014 -2.3536231E+014 -2.3536231E+014 -2.3536231E+014 -2.3536231E+014 -2.3536231E+014 -2.3536231E+014 -2.3536231E+014 -2.3536231E+014 -2.3536231E+014 -2.3536231E+014 -2.3536231E+014 -2.3536231E+014 -2.3536231E+014 -2.3536231E+014 -2.3536231E+014 -2.3536231E+014 -2.3536231E+014 -2.3536231E+014 -2.3536231E+014 -2.3536231E+014 -2.3536231E+014 -2.3536231E+014 -2.3536231E+014 -2.3536231E+014 -2.3536231E+014 -2.3536231E+014 -2.3536231E+014 -2.3536231E+014 -2.3536231E+014 -2.3536231E+014 -2.3536231E+014 -2.3536231E+014 -2.3536231E+014 -2.3536231E+014 -2.3536231E+014 -2.3536231E+014 -2.3536231E+014 -2.3536231E+014 -2.3536231E+014 -2.3536231E+014 -2.3536231E+014 -2.3536231E+014 -2.3536231E+014 -2.3536231E+014 -2.3536231E+014 -2.3536231E+014 -2.3536231E+014 -2.3536231E+014 -2.3536231E+014 -2.3536231E+014 -2.3536231E+014 -2.3536231E+014 -2.3536231E+014 -2.3536231E+014 -2.3536231E+014 -2.3536231E+014 -2.3536231E+014 -2.3536231E+014 -2.3536231E+014 -2.3536231E+014 -2.3536231E+014 -2.3536231E+014 -2.3536231E+014 -2.3536231E+014 -2.3536231E+014 -2.3536231E+014 -2.3536231E+014 -2.3536231E+014 -2.3536231E+014 -2.3536231E+014 -2.3536231E+014 -2.3536231E+014 -2.3536231E+014 -2.3536231E+014 -2.3536231E+014 -2.3536231E+014 -2.3536231E+014 -2.3536231E+014 -2.3536231E+014 -2.3536231E+014 -2.3536231E+014 -2.3536231E+014 -2.3536231E+014 -2.3536231E+014 -2.3536231E+014 -2.3536231E+014 -2.3536231E+014 -2.3536231E+014 -2.3536231E+014 -2.3536231E+014 -2.3536231E+014 -2.3536231E+014 -2.3536231E+014 -2.3536231E+014 -2.3536231E+014 -2.3536231E+014 -2.3536231E+014 -2.3536231E+014 -2.3536231E+014 -2.3536231E+014 -2.3536231E+014 -2.3536231E+014 -2.3536231E+014 -2.3536231E+014 -2.3536231E+014 -2.3536231E+014 -2.3536231E+014 -2.3536231E+014 -2.3536231E+014 -2.3536231E+014
        </DataArray>
        <DataArray type="Float64" Name="heat source calc" NumberOfComponents="1" format="ascii">
  1.0000000E+000  1.0000000E+000  1.0000000E+000  1.0000000E+000  1.0000000E+000  1.0000000E+000  1.0000000E+000  1.0000000E+000  1.0000000E+000  1.0000000E+000  1.0000000E+000  1.0000000E+000  1.0000000E+000  1.0000000E+000  1.0000000E+000  1.0000000E+000  1.0000000E+000  1.0000000E+000  1.0000000E+000  1.0000000E+000  1.0000000E+000  1.0000000E+000  1.0000000E+000  1.0000000E+000  1.0000000E+000  1.0000000E+000  1.0000000E+000  1.0000000E+000  1.0000000E+000  1.0000000E+000  1.0000000E+000  1.0000000E+000  1.0000000E+000  1.0000000E+000  1.0000000E+000  1.0000000E+000  1.0000000E+000  1.0000000E+000  1.0000000E+000  1.0000000E+000  1.0000000E+000  1.0000000E+000  1.0000000E+000  1.0000000E+000  1.0000000E+000  1.0000000E+000  1.0000000E+000  1.0000000E+000  1.0000000E+000  1.0000000E+000  1.0000000E+000  1.0000000E+000  1.0000000E+000  1.0000000E+000  1.0000000E+000  1.0000000E+000  1.0000000E+000  1.0000000E+000  1.0000000E+000  1.0000000E+000  1.0000000E+000  1.0000000E+000  1.0000000E+000  1.0000000E+000  1.0000000E+000  1.0000000E+000  1.0000000E+000  1.0000000E+000  1.0000000E+000  1.0000000E+000  1.0000000E+000  1.0000000E+000  1.0000000E+000  1.0000000E+000  1.0000000E+000  1.0000000E+000  1.0000000E+000  1.0000000E+000  1.0000000E+000  1.0000000E+000  1.0000000E+000  1.0000000E+000  1.0000000E+000  1.0000000E+000  1.0000000E+000  1.0000000E+000  1.0000000E+000  1.0000000E+000  1.0000000E+000  1.0000000E+000  1.0000000E+000  1.0000000E+000  1.0000000E+000  1.0000000E+000  1.0000000E+000  1.0000000E+000  1.0000000E+000  1.0000000E+000  1.0000000E+000  1.0000000E+000  1.0000000E+000  1.0000000E+000  1.0000000E+000  1.0000000E+000  1.0000000E+000  1.0000000E+000  1.0000000E+000  1.0000000E+000  1.0000000E+000  1.0000000E+000  1.0000000E+000  1.0000000E+000  1.0000000E+000  1.0000000E+000  1.0000000E+000  1.0000000E+000  1.0000000E+000  1.0000000E+000  1.0000000E+000  1.0000000E+000  1.0000000E+000  1.0000000E+000  1.0000000E+000  1.0000000E+000  1.0000000E+000  1.0000000E+000  1.0000000E+000  1.0000000E+000  1.0000000E+000  1.0000000E+000  1.0000000E+000  1.0000000E+000  1.0000000E+000  1.0000000E+000  1.0000000E+000  1.0000000E+000  1.0000000E+000  1.0000000E+000  1.0000000E+000  1.0000000E+000  1.0000000E+000  1.0000000E+000  1.0000000E+000  1.0000000E+000  1.0000000E+000  1.0000000E+000  1.0000000E+000  1.0000000E+000  1.0000000E+000  1.0000000E+000  1.0000000E+000  1.0000000E+000  1.0000000E+000  1.0000000E+000  1.0000000E+000  1.0000000E+000  1.0000000E+000  1.0000000E+000  1.0000000E+000  1.0000000E+000  1.0000000E+000  1.0000000E+000  1.0000000E+000  1.0000000E+000  1.0000000E+000  1.0000000E+000  1.0000000E+000  1.0000000E+000  1.0000000E+000  1.0000000E+000  1.0000000E+000  1.0000000E+000  1.0000000E+000  1.0000000E+000  1.0000000E+000  1.0000000E+000  1.0000000E+000  1.0000000E+000  1.0000000E+000  1.0000000E+000  1.0000000E+000  1.0000000E+000  1.0000000E+000  1.0000000E+000  1.0000000E+000  1.0000000E+000  1.0000000E+000  1.0000000E+000  1.0000000E+000  1.0000000E+000  1.0000000E+000  1.0000000E+000  1.0000000E+000  1.0000000E+000  1.0000000E+000  1.0000000E+000  1.0000000E+000  1.0000000E+000  1.0000000E+000  1.0000000E+000  1.0000000E+000  1.0000000E+000  1.0000000E+000  1.0000000E+000  1.0000000E+000  1.0000000E+000  1.0000000E+000  1.0000000E+000  1.0000000E+000  1.0000000E+000  1.0000000E+000  1.0000000E+000  1.0000000E+000  1.0000000E+000  1.0000000E+000  1.0000000E+000  1.0000000E+000  1.0000000E+000  1.0000000E+000  1.0000000E+000  1.0000000E+000  1.0000000E+000  1.0000000E+000  1.0000000E+000  1.0000000E+000  1.0000000E+000  1.0000000E+000  1.0000000E+000  1.0000000E+000  1.0000000E+000  1.0000000E+000  1.0000000E+000  1.0000000E+000  1.0000000E+000  1.0000000E+000  1.0000000E+000  1.0000000E+000  1.0000000E+000  1.0000000E+000  1.0000000E+000  1.0000000E+000  1.0000000E+000  1.0000000E+000  1.0000000E+000  1.0000000E+000  1.0000000E+000  1.0000000E+000  1.0000000E+000  1.0000000E+000  1.0000000E+000  1.0000000E+000  1.0000000E+000  1.0000000E+000  1.0000000E+000  1.0000000E+000  1.0000000E+000  1.0000000E+000  1.0000000E+000  1.0000000E+000  1.0000000E+000  1.0000000E+000  1.0000000E+000  1.0000000E+000  1.0000000E+000  1.0000000E+000  1.0000000E+000  1.0000000E+000  1.0000000E+000  1.0000000E+000  1.0000000E+000  1.0000000E+000  1.0000000E+000  1.0000000E+000  1.0000000E+000  1.0000000E+000  1.0000000E+000  1.0000000E+000  1.0000000E+000  1.0000000E+000  1.0000000E+000  1.0000000E+000  1.0000000E+000  1.0000000E+000  1.0000000E+000  1.0000000E+000  1.0000000E+000  1.0000000E+000  1.0000000E+000  1.0000000E+000  1.0000000E+000  1.0000000E+000  1.0000000E+000  1.0000000E+000  1.0000000E+000  1.0000000E+000  1.0000000E+000  1.0000000E+000  1.0000000E+000  1.0000000E+000  1.0000000E+000  1.0000000E+000  1.0000000E+000  1.0000000E+000  1.0000000E+000  1.0000000E+000  1.0000000E+000  1.0000000E+000  1.0000000E+000  1.0000000E+000  1.0000000E+000  1.0000000E+000  1.0000000E+000  1.0000000E+000  1.0000000E+000  1.0000000E+000  1.0000000E+000  1.0000000E+000  1.0000000E+000  1.0000000E+000  1.0000000E+000  1.0000000E+000  1.0000000E+000  1.0000000E+000  1.0000000E+000  1.0000000E+000  1.0000000E+000  1.0000000E+000  1.0000000E+000  1.0000000E+000  1.0000000E+000  1.0000000E+000  1.0000000E+000  1.0000000E+000  1.0000000E+000  1.0000000E+000  1.0000000E+000  1.0000000E+000  1.0000000E+000  1.0000000E+000  1.0000000E+000  1.0000000E+000  1.0000000E+000  1.0000000E+000  1.0000000E+000  1.0000000E+000  1.0000000E+000  1.0000000E+000  1.0000000E+000  1.0000000E+000  1.0000000E+000  1.0000000E+000  1.0000000E+000  1.0000000E+000  1.0000000E+000  1.0000000E+000  1.0000000E+000  1.0000000E+000  1.0000000E+000  1.0000000E+000  1.0000000E+000  1.0000000E+000  1.0000000E+000  1.0000000E+000  1.0000000E+000  1.0000000E+000  1.0000000E+000  1.0000000E+000  1.0000000E+000  1.0000000E+000  1.0000000E+000  1.0000000E+000  1.0000000E+000  1.0000000E+000  1.0000000E+000  1.0000000E+000  1.0000000E+000  1.0000000E+000  1.0000000E+000  1.0000000E+000  1.0000000E+000  1.0000000E+000  1.0000000E+000  1.0000000E+000  1.0000000E+000  1.0000000E+000  1.0000000E+000  1.0000000E+000  1.0000000E+000  1.0000000E+000  1.0000000E+000  1.0000000E+000  1.0000000E+000  1.0000000E+000  1.0000000E+000  1.0000000E+000  1.0000000E+000  1.0000000E+000  1.0000000E+000  1.0000000E+000  1.0000000E+000  1.0000000E+000  1.0000000E+000  1.0000000E+000  1.0000000E+000  1.0000000E+000  1.0000000E+000  1.0000000E+000  1.0000000E+000
        </DataArray>
      </PointData>
      <CellData>
      </CellData>
      <Points>
        <DataArray type="Float64" NumberOfComponents="3" format="ascii">
  1.0000000E+000  1.0000000E+000 0.0  1.0000000E+000 0.0 0.0  2.0000000E+000 0.0 0.0  2.0000000E+000  2.0000000E+000 0.0 0.0  2.0000000E+000 0.0 0.0  1.0000000E+000 0.0  1.0000000E+000  9.0000000E-001 0.0  1.0000000E+000  8.0000000E-001 0.0  1.0000000E+000  7.0000000E-001 0.0  1.0000000E+000  6.0000000E-001 0.0  1.0000000E+000  5.0000000E-001 0.0  1.0000000E+000  4.0000000E-001 0.0  1.0000000E+000  3.0000000E-001 0.0  1.0000000E+000  2.0000000E-001 0.0  1.0000000E+000  1.0000000E-001 0.0  1.1000000E+000 0.0 0.0  1.2000000E+000 0.0 0.0  1.3000000E+000 0.0 0.0  1.4000000E+000 0.0 0.0  1.5000000E+000 0.0 0.0  1.6000000E+000 0.0 0.0  1.7000000E+000 0.0 0.0  1.8000000E+000 0.0 0.0  1.9000000E+000 0.0 0.0  2.0000000E+000  1.0000000E-001 0.0  2.0000000E+000  2.0000000E-001 0.0  2.0000000E+000  3.0000000E-001 0.0  2.0000000E+000  4.0000000E-001 0.0  2.0000000E+000  5.0000000E-001 0.0  2.0000000E+000  6.0000000E-001 0.0  2.0000000E+000  7.0000000E-001 0.0  2.0000000E+000  8.0000000E-001 0.0  2.0000000E+000  9.0000000E-001 0.0  2.0000000E+000  1.0000000E+000 0.0  2.0000000E+000  1.1000000E+000 0.0  2.0000000E+000  1.2000000E+000 0.0  2.0000000E+000  1.3000000E+000 0.0  2.0000000E+000  1.4000000E+000 0.0  2.0000000E+000  1.5000000E+000 0.0  2.0000000E+000  1.6000000E+000 0.0  2.0000000E+000  1.7000000E+000 0.0  2.0000000E+000  1.8000000E+000 0.0  2.0000000E+000  1.9000000E+000 0.0  1.9000000E+000  2.0000000E+000 0.0  1.8000000E+000  2.0000000E+000 0.0  1.7000000E+000  2.0000000E+000 0.0  1.6000000E+000  2.0000000E+000 0.0  1.5000000E+000  2.0000000E+000 0.0  1.4000000E+000  2.0000000E+000 0.0  1.3000000E+000  2.0000000E+000 0.0  1.2000000E+000  2.0000000E+000 0.0  1.1000000E+000  2.0000000E+000 0.0  1.0000000E+000  2.0000000E+000 0.0  9.0000000E-001  2.0000000E+000 0.0  8.0000000E-001  2.0000000E+000 0.0  7.0000000E-001  2.0000000E+000 0.0  6.0000000E-001  2.0000000E+000 0.0  5.0000000E-001  2.0000000E+000 0.0  4.0000000E-001  2.0000000E+000 0.0  3.0000000E-001  2.0000000E+000 0.0  2.0000000E-001  2.0000000E+000 0.0  1.0000000E-001  2.0000000E+000 0.0 0.0  1.9000000E+000 0.0 0.0  1.8000000E+000 0.0 0.0  1.7000000E+000 0.0 0.0  1.6000000E+000 0.0 0.0  1.5000000E+000 0.0 0.0  1.4000000E+000 0.0 0.0  1.3000000E+000 0.0 0.0  1.2000000E+000 0.0 0.0  1.1000000E+000 0.0  1.0000000E-001  1.0000000E+000 0.0  2.0000000E-001  1.0000000E+000 0.0  3.0000000E-001  1.0000000E+000 0.0  4.0000000E-001  1.0000000E+000 0.0  5.0000000E-001  1.0000000E+000 0.0  6.0000000E-001  1.0000000E+000 0.0  7.0000000E-001  1.0000000E+000 0.0  8.0000000E-001  1.0000000E+000 0.0  9.0000000E-001  1.0000000E+000 0.0  1.9292893E+000  7.0710678E-002 0.0  7.0710678E-002  1.0707107E+000 0.0  7.0710678E-002  1.9292893E+000 0.0  1.0707107E+000  7.0710678E-002 0.0  1.9292893E+000  1.9292893E+000 0.0  1.3500000E+000  1.9133975E+000 0.0  1.9133975E+000  1.3500000E+000 0.0  1.9133975E+000  8.5000000E-001 0.0  6.5000000E-001  1.0866025E+000 0.0  9.5000000E-001  1.9133975E+000 0.0  1.9133975E+000  5.5000000E-001 0.0  1.0866025E+000  6.5000000E-001 0.0  1.0866025E+000  9.5000000E-001 0.0  1.0866025E+000  1.0500000E+000 0.0  5.5000000E-001  1.9133975E+000 0.0  1.1732051E+000  1.0000000E+000 0.0  1.1732051E+000  1.1000000E+000 0.0  1.0866025E+000  1.1500000E+000 0.0  8.6602540E-002  1.4500000E+000 0.0  1.4500000E+000  8.6602540E-002 0.0  1.1732051E+000  1.2000000E+000 0.0  1.2598076E+000  1.0500000E+000 0.0  1.0866025E+000  1.2500000E+000 0.0  1.1732051E+000  1.3000000E+000 0.0  1.6500000E+000  1.9133975E+000 0.0  1.0866025E+000  1.3500000E+000 0.0  1.1732051E+000  1.4000000E+000 0.0  1.2598076E+000  1.3500000E+000 0.0  1.0866025E+000  3.5000000E-001 0.0  3.5000000E-001  1.0866025E+000 0.0  1.2598076E+000  9.5000000E-001 0.0  1.3464102E+000  1.0000000E+000 0.0  1.3464102E+000  9.0000000E-001 0.0  1.4330127E+000  9.5000000E-001 0.0  1.4330127E+000  8.5000000E-001 0.0  1.4330127E+000  1.0500000E+000 0.0  1.0866025E+000  1.4500000E+000 0.0  1.0000000E+000  1.4000000E+000 0.0  1.2598076E+000  1.4500000E+000 0.0  1.3464102E+000  1.4000000E+000 0.0  1.9133975E+000  1.6500000E+000 0.0  1.3464102E+000  1.5000000E+000 0.0  1.4330127E+000  1.4500000E+000 0.0  1.5196152E+000  1.0000000E+000 0.0  1.0000000E+000  1.5000000E+000 0.0  9.1339746E-001  1.4500000E+000 0.0  1.0866025E+000  1.5500000E+000 0.0  3.5000000E-001  1.9133975E+000 0.0  1.5196152E+000  1.1000000E+000 0.0  7.5000000E-001  1.9133975E+000 0.0  1.9133975E+000  3.5000000E-001 0.0  1.6500000E+000  8.6602540E-002 0.0  8.6602540E-002  1.6500000E+000 0.0  1.4330127E+000  1.5500000E+000 0.0  1.5196152E+000  1.5000000E+000 0.0  9.1339746E-001  1.5500000E+000 0.0  8.2679492E-001  1.5000000E+000 0.0  1.9133975E+000  1.0500000E+000 0.0  9.1339746E-001  1.3500000E+000 0.0  1.1500000E+000  1.9133975E+000 0.0  1.5196152E+000  1.6000000E+000 0.0  1.3464102E+000  1.6000000E+000 0.0  8.6602540E-002  1.2500000E+000 0.0  1.2500000E+000  8.6602540E-002 0.0  1.6062178E+000  1.5500000E+000 0.0  1.6062178E+000  1.4500000E+000 0.0  8.2679492E-001  1.6000000E+000 0.0  7.4019238E-001  1.5500000E+000 0.0  7.4019238E-001  1.4500000E+000 0.0  6.5358984E-001  1.5000000E+000 0.0  6.5358984E-001  1.4000000E+000 0.0  5.6698730E-001  1.4500000E+000 0.0  5.6698730E-001  1.5500000E+000 0.0  4.8038476E-001  1.5000000E+000 0.0  4.8038476E-001  1.6000000E+000 0.0  4.8038476E-001  1.4000000E+000 0.0  3.9378222E-001  1.5500000E+000 0.0  1.3464102E+000  8.0000000E-001 0.0  1.4330127E+000  7.5000000E-001 0.0  1.5196152E+000  8.0000000E-001 0.0  1.5196152E+000  7.0000000E-001 0.0  1.4330127E+000  6.5000000E-001 0.0  1.5196152E+000  6.0000000E-001 0.0  1.4330127E+000  5.5000000E-001 0.0  1.5196152E+000  5.0000000E-001 0.0  1.4330127E+000  4.5000000E-001 0.0  1.5196152E+000  4.0000000E-001 0.0  1.6062178E+000  6.5000000E-001 0.0  1.6062178E+000  4.5000000E-001 0.0  1.3464102E+000  5.0000000E-001 0.0  1.3464102E+000  4.0000000E-001 0.0  1.6062178E+000  1.0500000E+000 0.0  1.6062178E+000  1.1500000E+000 0.0  1.6928203E+000  1.5000000E+000 0.0  5.6698730E-001  1.6500000E+000 0.0  9.1339746E-001  1.6500000E+000 0.0  1.6062178E+000  3.5000000E-001 0.0  3.9378222E-001  1.6500000E+000 0.0  1.6062178E+000  1.6500000E+000 0.0  8.5000000E-001  1.0866025E+000 0.0  1.5196152E+000  1.7000000E+000 0.0  1.4330127E+000  1.1500000E+000 0.0  1.6928203E+000  1.4000000E+000 0.0  1.6928203E+000  1.1000000E+000 0.0  1.6928203E+000  1.0000000E+000 0.0  3.0717968E-001  1.6000000E+000 0.0  3.0717968E-001  1.5000000E+000 0.0  3.0717968E-001  1.7000000E+000 0.0  1.6928203E+000  4.0000000E-001 0.0  1.6928203E+000  3.0000000E-001 0.0  8.2679492E-001  1.7000000E+000 0.0  1.5196152E+000  3.0000000E-001 0.0  1.2598076E+000  4.5000000E-001 0.0  1.2598076E+000  3.5000000E-001 0.0  1.2598076E+000  5.5000000E-001 0.0  1.3464102E+000  3.0000000E-001 0.0  1.4330127E+000  1.3500000E+000 0.0  1.6062178E+000  1.3500000E+000 0.0  1.6928203E+000  1.2000000E+000 0.0  7.4019238E-001  1.3500000E+000 0.0  6.5358984E-001  1.3000000E+000 0.0  1.6928203E+000  5.0000000E-001 0.0  1.0000000E+000  1.2000000E+000 0.0  7.4019238E-001  1.2500000E+000 0.0  3.9378222E-001  1.7500000E+000 0.0  1.7794229E+000  4.5000000E-001 0.0  1.7794229E+000  1.4500000E+000 0.0  2.2057714E-001  1.5500000E+000 0.0  1.7794229E+000  1.1500000E+000 0.0  1.1732051E+000  5.0000000E-001 0.0  1.7794229E+000  1.5500000E+000 0.0  1.7794229E+000  1.2500000E+000 0.0  1.6062178E+000  1.7500000E+000 0.0  1.6928203E+000  1.7000000E+000 0.0  1.5196152E+000  1.8000000E+000 0.0  1.4330127E+000  1.7500000E+000 0.0  9.1339746E-001  1.7500000E+000 0.0  1.0000000E+000  1.7000000E+000 0.0  1.2598076E+000  2.5000000E-001 0.0  1.3464102E+000  2.0000000E-001 0.0  1.7794229E+000  5.5000000E-001 0.0  2.2057714E-001  1.4500000E+000 0.0  3.0717968E-001  1.4000000E+000 0.0  2.2057714E-001  1.3500000E+000 0.0  3.0717968E-001  1.3000000E+000 0.0  2.2057714E-001  1.2500000E+000 0.0  8.2679492E-001  1.8000000E+000 0.0  7.4019238E-001  1.7500000E+000 0.0  1.8660254E+000  1.2000000E+000 0.0  1.8660254E+000  1.5000000E+000 0.0  1.0000000E+000  1.8000000E+000 0.0  1.0866025E+000  1.7500000E+000 0.0  3.0717968E-001  1.8000000E+000 0.0  2.2057714E-001  1.7500000E+000 0.0  2.2057714E-001  1.8500000E+000 0.0  1.3397460E-001  1.8000000E+000 0.0  1.6928203E+000  1.8000000E+000 0.0  1.7794229E+000  1.7500000E+000 0.0  1.7794229E+000  1.8500000E+000 0.0  1.8660254E+000  1.8000000E+000 0.0  3.0717968E-001  1.2000000E+000 0.0  3.9378222E-001  1.2500000E+000 0.0  2.2057714E-001  1.1500000E+000 0.0  6.5358984E-001  1.2000000E+000 0.0  5.6698730E-001  1.2500000E+000 0.0  7.4019238E-001  1.1500000E+000 0.0  8.2679492E-001  1.2000000E+000 0.0  5.6698730E-001  1.1500000E+000 0.0  1.4330127E+000  1.8500000E+000 0.0  1.3464102E+000  1.8000000E+000 0.0  1.2658932E+000  1.8593045E+000 0.0  1.2547925E+000  1.7599225E+000 0.0  1.5196152E+000  1.9000000E+000 0.0  1.3353094E+000  1.7006180E+000 0.0  1.2436918E+000  1.6605406E+000 0.0  1.2542850E+000  1.5611032E+000 0.0  1.1740441E+000  1.5014258E+000 0.0  1.5196152E+000  1.4000000E+000 0.0  6.5358984E-001  1.6000000E+000 0.0  1.1732051E+000  3.0000000E-001 0.0  1.1732051E+000  2.0000000E-001 0.0  1.0866025E+000  2.5000000E-001 0.0  2.2057714E-001  1.6500000E+000 0.0  1.7794229E+000  3.5000000E-001 0.0  1.7794229E+000  2.5000000E-001 0.0  1.6928203E+000  2.0000000E-001 0.0  1.7794229E+000  1.5000000E-001 0.0  1.8660254E+000  2.0000000E-001 0.0  5.6698730E-001  1.3500000E+000 0.0  4.8038476E-001  1.7000000E+000 0.0  5.6698730E-001  1.7500000E+000 0.0  6.5358984E-001  1.7000000E+000 0.0  6.5000000E-001  1.9133975E+000 0.0  1.6062178E+000  5.5000000E-001 0.0  8.5000000E-001  1.9133975E+000 0.0  1.4330127E+000  1.6500000E+000 0.0  7.4019238E-001  1.6500000E+000 0.0  1.3464102E+000  7.0000000E-001 0.0  1.2598076E+000  7.5000000E-001 0.0  1.2598076E+000  8.5000000E-001 0.0  1.1732051E+000  8.0000000E-001 0.0  1.1732051E+000  9.0000000E-001 0.0  1.0866025E+000  5.5000000E-001 0.0  1.4330127E+000  3.5000000E-001 0.0  1.4330127E+000  2.5000000E-001 0.0  1.5196152E+000  2.0000000E-001 0.0  1.1732051E+000  4.0000000E-001 0.0  8.6602540E-002  1.3500000E+000 0.0  4.8038476E-001  1.8000000E+000 0.0  1.3464102E+000  6.0000000E-001 0.0  1.1732051E+000  6.0000000E-001 0.0  1.2598076E+000  6.5000000E-001 0.0  3.9378222E-001  1.3500000E+000 0.0  3.9378222E-001  1.4500000E+000 0.0  1.7794229E+000  1.6500000E+000 0.0  1.6928203E+000  1.6000000E+000 0.0  8.2679492E-001  1.4000000E+000 0.0  1.1732051E+000  7.0000000E-001 0.0  1.0866025E+000  4.5000000E-001 0.0  1.3464102E+000  1.1000000E+000 0.0  1.3464102E+000  1.2000000E+000 0.0  1.2598076E+000  1.1500000E+000 0.0  1.2598076E+000  1.2500000E+000 0.0  1.3464102E+000  1.3000000E+000 0.0  1.4330127E+000  1.2500000E+000 0.0  1.5196152E+000  1.2000000E+000 0.0  1.6062178E+000  1.2500000E+000 0.0  1.6928203E+000  1.3000000E+000 0.0  1.5196152E+000  1.3000000E+000 0.0  1.7794229E+000  1.3500000E+000 0.0  1.3500000E+000  8.6602540E-002 0.0  1.5196152E+000  9.0000000E-001 0.0  1.6062178E+000  8.5000000E-001 0.0  1.6062178E+000  9.5000000E-001 0.0  1.0866025E+000  7.5000000E-001 0.0  1.0866025E+000  8.5000000E-001 0.0  9.5000000E-001  1.0866025E+000 0.0  1.0000000E+000  1.3000000E+000 0.0  9.1339746E-001  1.2500000E+000 0.0  8.2679492E-001  1.3000000E+000 0.0  1.9133975E+000  9.5000000E-001 0.0  1.8267949E+000  9.0000000E-001 0.0  1.8267949E+000  8.0000000E-001 0.0  1.7401924E+000  8.5000000E-001 0.0  1.7401924E+000  7.5000000E-001 0.0  1.8267949E+000  7.0000000E-001 0.0  1.7401924E+000  6.5000000E-001 0.0  1.9133975E+000  7.5000000E-001 0.0  4.5000000E-001  1.0866025E+000 0.0  1.0000000E+000  1.6000000E+000 0.0  1.5500000E+000  8.6602540E-002 0.0  1.0866025E+000  1.6500000E+000 0.0  4.8038476E-001  1.3000000E+000 0.0  4.8038476E-001  1.2000000E+000 0.0  1.9133975E+000  6.5000000E-001 0.0  4.5000000E-001  1.9133975E+000 0.0  1.6062178E+000  2.5000000E-001 0.0  8.6602540E-002  1.5500000E+000 0.0  1.0500000E+000  1.9133975E+000 0.0  6.5358984E-001  1.8000000E+000 0.0  1.6062178E+000  7.5000000E-001 0.0  1.8267949E+000  1.0000000E+000 0.0  1.9133975E+000  4.5000000E-001 0.0  1.1765006E+000  1.8189785E+000 0.0  1.1675006E+000  1.6000000E+000 0.0  1.1728329E+000  1.7187663E+000 0.0  1.0919033E+000  1.5918118E-001 0.0  1.1587838E+000  9.6386794E-002 0.0  8.0729988E-002  1.1601716E+000 0.0  4.0000000E-001  1.8392305E+000 0.0  1.6000000E+000  1.6076952E-001 0.0  1.6000000E+000  1.8392305E+000 0.0  4.0000000E-001  1.1607695E+000 0.0  9.0613714E-001  1.8374248E+000 0.0  9.0613714E-001  1.1625752E+000 0.0  1.0913639E+000  1.8368650E+000 0.0  1.7500000E+000  6.9552350E-002 0.0  1.8395732E+000  8.1196729E-002 0.0  2.5000000E-001  1.9304477E+000 0.0  1.6042683E-001  1.9188033E+000 0.0  1.7500000E+000  1.9304477E+000 0.0  1.8395732E+000  1.9188033E+000 0.0  2.5000000E-001  1.0695523E+000 0.0  1.6042683E-001  1.0811967E+000 0.0  1.9219525E+000  1.4351822E+000 0.0  1.9219525E+000  1.7351822E+000 0.0  1.7708678E+000  1.0648178E+000 0.0  1.6842653E+000  9.1481782E-001 0.0  1.8574703E+000  1.1148178E+000 0.0  1.8574703E+000  1.5851822E+000 0.0  1.8574703E+000  1.2851822E+000 0.0  1.8574703E+000  2.8518218E-001 0.0  1.8353500E+000  6.1481782E-001 0.0  1.4252967E-001  1.7148178E+000 0.0  1.6842653E+000  5.8518218E-001 0.0  5.7647429E-001  1.8335681E+000 0.0  1.4235257E+000  1.6643195E-001 0.0  5.5000000E-001  1.0676286E+000 0.0  1.5358984E-001  1.6000000E+000 0.0  1.6732051E+000  8.0000000E-001 0.0  1.5358984E-001  1.3000000E+000 0.0  1.6732051E+000  7.0000000E-001 0.0  7.5000000E-001  1.0669873E+000 0.0  1.5358984E-001  1.4000000E+000 0.0  1.8464102E+000  5.0000000E-001 0.0  1.5358984E-001  1.5000000E+000 0.0  1.8464102E+000  4.0000000E-001 0.0  1.7599580E+000  9.5000000E-001 0.0  1.8462598E+000  1.7000000E+000 0.0  1.9331631E+000  1.2500000E+000 0.0  1.9331631E+000  1.1500000E+000 0.0  1.9331631E+000  1.5500000E+000 0.0  6.6836934E-002  1.7500000E+000 0.0  1.9331631E+000  2.5000000E-001 0.0  1.8462598E+000  1.4000000E+000 0.0  1.5392033E-001  1.2000000E+000 0.0  7.3014428E-001  1.8325962E+000 0.0  1.2698557E+000  1.6740381E-001 0.0  6.6987298E-002  1.8473446E+000 0.0  1.9330127E+000  1.5265543E-001 0.0  1.9330127E+000  1.8473446E+000 0.0  1.4439583E+000  1.9310417E+000 0.0  1.2500000E+000  1.9376390E+000 0.0  1.0267949E+000  1.1000000E+000 0.0  2.9128128E-001  1.8707869E+000 0.0  1.7087187E+000  1.2921308E-001 0.0  1.7087187E+000  1.8707869E+000 0.0  2.9128128E-001  1.1292131E+000 0.0
        </DataArray>
      </Points>
      <Cells>
        <DataArray type="Int32" Name="connectivity" format="ascii">